! TOUCHSTONE file generated by CST MICROWAVE STUDIO
# GHZ S MA R 50
10                      0.991602        -55.8855        0.0182345         151.021                0               0                0               0  
10.07                   0.989256        -55.7685        0.0186674         101.086                0               0                0               0  
10.14                   0.994461        -55.7337        0.0189188         52.5649                0               0                0               0  
10.21                    1.00343        -56.0799        0.0187104         4.56534                0               0                0               0  
10.28                    1.00987        -56.8271        0.0180664        -44.1045                0               0                0               0  
10.35                    1.00944        -57.7248        0.0173056        -94.3344                0               0                0               0  
10.42                    1.00253        -58.4302        0.0168609         -146.02                0               0                0               0  
10.49                   0.993963        -58.7298        0.0169597         162.173                0               0                0               0  
10.56                   0.989717         -58.689        0.0174195         111.732                0               0                0               0  
10.63                   0.992723        -58.6192         0.017805         63.0096                0               0                0               0  
10.7                     1.00074        -58.8487        0.0177578         15.2063                0               0                0               0  
10.77                    1.00811        -59.4824        0.0172084        -32.9747                0               0                0               0  
10.84                    1.00977        -60.3457        0.0164149        -82.6991                0               0                0               0  
10.91                    1.00469        -61.1177        0.0158314        -134.258                0               0                0               0  
10.98                   0.996437         -61.541        0.0157973         173.521                0               0                0               0  
11.05                   0.990762        -61.5954          0.01624         122.471                0               0                0               0  
11.12                   0.991622        -61.5237        0.0167364         73.3976                0               0                0               0  
11.19                   0.998311        -61.6587        0.0168569         25.6781                0               0                0               0  
11.26                    1.00605        -62.1765        0.0164341        -22.0444                0               0                0               0  
11.33                    1.00949         -62.982         0.015647        -71.1737                0               0                0               0  
11.4                     1.00635        -63.7917        0.0149404        -122.424                0               0                0               0  
11.47                    0.99886        -64.3236        0.0147493        -174.952                0               0                0               0  
11.54                   0.992248        -64.4834        0.0151328         133.322                0               0                0               0  
11.61                   0.991134        -64.4383         0.015712         83.7491                0               0                0               0  
11.68                   0.996228        -64.5041        0.0159999         35.9871                0               0                0               0  
11.75                    1.00386        -64.9101        0.0157305         -11.329                0               0                0               0  
11.82                    1.00871        -65.6403        0.0149899         -59.797                0               0                0               0  
11.89                    1.00749        -66.4607        0.0141846        -110.545                0               0                0               0  
11.96                    1.00112        -67.0827         0.013819        -163.208                0               0                0               0  
12.03                   0.994051        -67.3513        0.0140976         144.362                0               0                0               0  
12.1                    0.991217        -67.3571         0.014722         94.1281                0               0                0               0  
12.17                   0.994563        -67.3801        0.0151681         46.1639                0               0                0               0  
12.24                    1.00165         -67.684        0.0150732       -0.842041                0               0                0               0  
12.31                    1.00748        -68.3263        0.0144214         -48.631                0               0                0               0  
12.38                    1.00808        -69.1325        0.0135547           -98.7                0               0                0               0  
12.45                     1.0031        -69.8229        0.0130124        -151.262                0               0                0               0  
12.52                   0.996022        -70.1974        0.0131435         155.652                0               0                0               0  
12.59                   0.991796        -70.2725        0.0137681         104.609                0               0                0               0  
12.66                   0.993356        -70.2788        0.0143522          56.264                0               0                0               0  
12.73                   0.999526        -70.4949        0.0144426         9.44299                0               0                0               0  
12.8                     1.00593         -71.043        0.0139163         -37.697                0               0                0               0  
12.87                    1.00815         -71.813        0.0130309         -86.957                0               0                0               0  
12.94                    1.00473        -72.5494        0.0123239        -139.159                0               0                0               0  
13.01                   0.998068        -73.0219        0.0122726         167.218                0               0                0               0  
13.08                   0.992824        -73.1799        0.0128497         115.238                0               0                0               0  
13.15                   0.992656        -73.1951        0.0135451          66.313                0               0                0               0  
13.22                   0.997619        -73.3419        0.0138255         19.5249                0               0                0               0  
13.29                    1.00417        -73.7948        0.0134577         -27.032                0               0                0               0  
13.36                    1.00774        -74.5103        0.0126006         -75.396                0               0                0               0  
13.43                    1.00593        -75.2692        0.0117547        -126.964                0               0                0               0  
13.5                     1.00004        -75.8265         0.011495         179.093                0               0                0               0  
13.57                   0.994179        -76.0744         0.011972          126.09                0               0                0               0  
13.64                   0.992446         -76.121        0.0127431          76.366                0               0                0               0  
13.71                   0.996014        -76.2195        0.0132094         29.4221                0               0                0               0  
13.78                    1.00231        -76.5821        0.0130279        -16.6621                0               0                0               0  
13.85                    1.00692        -77.2299        0.0122484        -64.0991                0               0                0               0  
13.92                     1.0067        -77.9893        0.0113039        -114.775                0               0                0               0  
13.99                    1.00185        -78.6157        0.0108247        -168.716                0               0                0               0  
14.06                   0.995761        -78.9548        0.0111473         137.266                0               0                0               0  
14.13                   0.992688        -79.0514        0.0119471         86.5161                0               0                0               0  
14.2                    0.994758        -79.1235        0.0125837          39.197                0               0                0               0  
14.27                    1.00045        -79.4048        0.0126061        -6.56494                0               0                0               0  
14.34                    1.00575        -79.9757        0.0119497         -53.115                0               0                0               0  
14.41                    1.00701        -80.7152         0.010957        -102.709                0               0                0               0  
14.48                     1.0034         -81.392        0.0102668        -156.269                0               0                0               0  
14.55                   0.997467        -81.8188        0.0103874         148.819                0               0                0               0  
14.62                   0.993348        -81.9799        0.0111627         96.8369                0               0                0               0  
14.69                   0.993918        -82.0478        0.0119451          48.896                0               0                0               0  
14.76                   0.998723        -82.2617        0.0121803         3.27808                0               0                0               0  
14.83                    1.00435         -82.752        0.0116864        -42.4719                0               0                0               0  
14.9                     1.00689        -83.4542        0.0107005        -90.8689                0               0                0               0  
14.97                    1.00464        -84.1622       0.00982506        -143.647                0               0                0               0  
15.04                   0.999188        -84.6685       0.00970516         160.813                0               0                0               0  
15.11                   0.994343        -84.9031         0.010396         107.426                0               0                0               0  
15.18                   0.993494        -84.9871        0.0112896          58.585                0               0                0               0  
15.25                   0.997197        -85.1497        0.0117379         12.8979                0               0                0               0  
15.32                    1.00281        -85.5604        0.0114393        -32.1841                0               0                0               0  
15.39                     1.0064        -86.2114        0.0105162         -79.353                0               0                0               0  
15.46                    1.00553        -86.9315       0.00949893        -130.981                0               0                0               0  
15.53                    1.00084        -87.5058       0.00911558          173.27                0               0                0               0  
15.6                    0.995598        -87.8188       0.00965712         118.396                0               0                0               0  
15.67                   0.993478        -87.9369        0.0106166         68.3469                0               0                0               0  
15.74                    0.99594         -88.066        0.0112677         22.3401                0               0                0               0  
15.81                    1.00121        -88.4024        0.0111885         -22.249                0               0                0               0  
15.88                    1.00558        -88.9918        0.0103819        -68.2439                0               0                0               0  
15.95                    1.00604        -89.7056       0.00928015        -118.452                0               0                0               0  
16.02                    1.00232        -90.3338       0.00863377        -173.869                0               0                0               0  
16.09                   0.997019        -90.7253       0.00896357         129.844                0               0                0               0  
16.16                   0.993837        -90.8923       0.00993381         78.2729                0               0                0               0  
16.23                   0.994993        -91.0068        0.0107677         31.6631                0               0                0               0  
16.3                    0.999632        -91.2776        0.0109223        -12.6318                0               0                0               0  
16.37                    1.00447        -91.7989        0.0102788        -57.5659                0               0                0               0  
16.44                    1.00617        -92.4895        0.0091559        -106.198                0               0                0               0  
16.51                    1.00357        -93.1556       0.00826916        -160.694                0               0                0               0  
16.58                   0.998517        -93.6214       0.00833064         141.884                0               0                0               0  
16.65                    0.99453        -93.8484       0.00924547         88.4868                0               0                0               0  
16.72                   0.994398        -93.9668        0.0102313          40.938                0               0                0               0  
16.79                    0.99818        -94.1844        0.0106251        -3.30322                0               0                0               0  
16.86                    1.00319        -94.6355         0.010184        -47.3428                0               0                0               0  
16.93                    1.00593        -95.2887       0.00910586         -94.374                0               0                0               0  
17                       1.00454         -95.976       0.00802599        -147.412                0               0                0               0  
17.07                    1.00001        -96.5083       0.00778025         154.563                0               0                0               0  
17.14                   0.995501        -96.8025       0.00856547         99.1152                0               0                0               0  
17.21                   0.994167         -96.942       0.00966114         50.2461                0               0                0               0  
17.28                   0.996921        -97.1212        0.0102897         5.79004                0               0                0               0  
17.35                    1.00179        -97.5039         0.010081        -37.5591                0               0                0               0  
17.42                    1.00537        -98.1082       0.00910964        -83.0669                0               0                0               0  
17.49                    1.00519        -98.7999       0.00790128         -134.25                0               0                0               0  
17.56                    1.00141        -99.3879       0.00733407         167.882                0               0                0               0  
17.63                   0.996674        -99.7521       0.00790973         110.325                0               0                0               0  
17.7                    0.994289        -99.9277       0.00906001         59.7051                0               0                0               0  
17.77                   0.995916        -100.085       0.00990784         14.7168                0               0                0               0  
17.84                    1.00038        -100.405       0.00995179        -28.1729                0               0                0               0  
17.91                    1.00454        -100.952       0.00914215        -72.3262                0               0                0               0  
17.98                    1.00551        -101.633       0.00788047        -121.455                0               0                0               0  
18.05                    1.00266        -102.263       0.00701025          -178.3                0               0                0               0  
18.12                   0.997969        -102.697       0.00730023         122.269                0               0                0               0  
18.19                   0.994726         -102.92       0.00843683         69.4458                0               0                0               0  
18.26                   0.995193        -103.071       0.00947766          23.562                0               0                0               0  
18.33                   0.999012        -103.338       0.00978383         -19.124                0               0                0               0  
18.4                     1.00348        -103.824       0.00918074        -62.1348                0               0                0               0  
18.47                    1.00549        -104.479       0.00794126        -109.202                0               0                0               0  
18.54                    1.00368        -105.138       0.00681661        -164.229                0               0                0               0  
18.61                   0.999318        -105.636       0.00675895         135.072                0               0                0               0  
18.68                   0.995453        -105.916       0.00780086         79.6128                0               0                0               0  
18.75                    0.99479        -106.077       0.00899765          32.396                0               0                0               0  
18.82                   0.997774        -106.302       0.00956682        -10.3701                0               0                0               0  
18.89                    1.00228        -106.726       0.00920604         -52.481                0               0                0               0  
18.96                    1.00516        -107.343       0.00806053         -97.623                0               0                0               0  
19.03                    1.00444        -108.016        0.0067552        -150.254                0               0                0               0  
19.1                     1.00063         -108.57       0.00631575         148.791                0               0                0               0  
19.17                   0.996399        -108.913       0.00716935         90.4092                0               0                0               0  
19.24                   0.994702        -109.099       0.00847107         41.3398                0               0                0               0  
19.31                   0.996721        -109.295       0.00929337        -1.83105                0               0                0               0  
19.38                    1.00101        -109.659           0.0092        -43.3062                0               0                0               0  
19.45                    1.00456        -110.229       0.00821115        -86.7578                0               0                0               0  
19.52                    1.00492        -110.901       0.00681239        -136.729                0               0                0               0  
19.59                    1.00186        -111.503        0.0059972         163.311                0               0                0               0  
19.66                   0.997513        -111.909       0.00656419          102.05                0               0                0               0  
19.73                   0.994926        -112.133       0.00790499         50.5249                0               0                0               0  
19.8                    0.995905        -112.314       0.00896031         6.57178                0               0                0               0  
19.87                   0.999737        -112.625       0.00914949         -34.541                0               0                0               0  
19.94                    1.00372        -113.142       0.00836925         -76.585                0               0                0               0  
20.01                     1.0051        -113.799       0.00696595        -123.921                0               0                0               0  
20.08                    1.00292        -114.435       0.00582315         178.328                0               0                0               0  
20.15                   0.998721        -114.904        0.0060122         114.773                0               0                0               0  
20.22                   0.995431        -115.175       0.00730814          60.127                0               0                0               0  
20.29                   0.995354        -115.357       0.00856477         14.9312                0               0                0               0  
20.36                   0.998528        -115.623       0.00904176        -26.1138                0               0                0               0  
20.43                    1.00271        -116.084       0.00851108        -67.0532                0               0                0               0  
20.5                     1.00498        -116.714         0.007186        -111.988                0               0                0               0  
20.57                    1.00378        -117.371       0.00579957         -166.67                0               0                0               0  
20.64                   0.999956        -117.897        0.0055479         128.731                0               0                0               0  
20.71                   0.996179        -118.224       0.00669665         70.3589                0               0                0               0  
20.78                   0.995092        -118.421       0.00810991          23.354                0               0                0               0  
20.85                   0.997446        -118.653       0.00887019        -17.9468                0               0                0               0  
20.92                    1.00157        -119.058       0.00861906        -58.0791                0               0                0               0  
20.99                    1.00457         -119.65       0.00744354        -100.956                0               0                0               0  
21.06                    1.00438        -120.315       0.00591585        -152.203                0               0                0               0  
21.13                    1.00114        -120.891       0.00520766         143.918                0               0                0               0  
21.2                    0.997114        -121.276       0.00609023         81.5039                0               0                0               0  
21.27                   0.995115        -121.501       0.00759932          31.979                0               0                0               0  
21.34                   0.996546        -121.712       0.00862817        -9.95313                0               0                0               0  
21.41                    1.00038        -122.064       0.00867628        -49.5781                0               0                0               0  
21.48                    1.00393         -122.61       0.00770919        -90.7788                0               0                0               0  
21.55                    1.00473        -123.271       0.00614547        -138.686                0               0                0               0  
21.62                    1.00223        -123.886       0.00502409         159.978                0               0                0               0  
21.69                   0.998187        -124.331       0.00551817         93.8779                0               0                0               0  
21.76                   0.995416        -124.595       0.00704245         40.9785                0               0                0               0  
21.83                   0.995865        -124.798       0.00831407        -2.03711                0               0                0               0  
21.9                    0.999206        -125.103       0.00867099         -41.459                0               0                0               0  
21.97                    1.00308        -125.599       0.00795839        -81.3584                0               0                0               0  
22.04                     1.0048        -126.242        0.0064543        -126.311                0               0                0               0  
22.11                    1.00317        -126.886       0.00501361         176.222                0               0                0               0  
22.18                   0.999335        -127.388       0.00501823         107.797                0               0                0               0  
22.25                   0.995972          -127.7       0.00645296         50.5771                0               0                0               0  
22.32                   0.995437        -127.909       0.00792911         5.91016                0               0                0               0  
22.39                   0.998098        -128.176       0.00859477        -33.6299                0               0                0               0  
22.46                    1.00207        -128.619       0.00817106        -72.5781                0               0                0               0  
22.53                    1.00459        -129.232       0.00680751        -115.076                0               0                0               0  
22.6                      1.0039        -129.893       0.00516896        -168.151                0               0                0               0  
22.67                     1.0005        -130.448        0.0046357         123.421                0               0                0               0  
22.74                   0.996751        -130.814       0.00584914          61.084                0               0                0               0  
22.81                   0.995284        -131.043       0.00747591         14.0225                0               0                0               0  
22.88                   0.997125        -131.282       0.00844029        -25.9961                0               0                0               0  
22.95                    1.00097        -131.672       0.00832912        -64.3252                0               0                0               0  
23.02                    1.00412        -132.247       0.00717182        -104.883                0               0                0               0  
23.09                     1.0044        -132.912       0.00546036        -153.766                0               0                0               0  
23.16                    1.00161        -133.511        0.0044181         140.463                0               0                0               0  
23.23                   0.997699        -133.935       0.00525975         72.8848                0               0                0               0  
23.3                    0.995403        -134.195       0.00696301         22.4707                0               0                0               0  
23.37                   0.996332        -134.419       0.00820525        -18.4561                0               0                0               0  
23.44                   0.999823        -134.761       0.00841983        -56.4824                0               0                0               0  
23.51                    1.00342         -135.29       0.00751976        -95.5703                0               0                0               0  
23.58                    1.00463        -135.946       0.00584641        -140.864                0               0                0               0  
23.65                     1.0026         -136.58       0.00439652         158.059                0               0                0               0  
23.72                   0.998763        -137.061       0.00472341         86.4297                0               0                0               0  
23.79                   0.995786        -137.362       0.00640238         31.4805                0               0                0               0  
23.86                   0.995765        -137.584       0.00788965        -10.8975                0               0                0               0  